                         Program Version 6.0.0  -   RELEASE  -
|  1> !UKS B3LYP EPR-III TightSCF
|  2>
|  3> *xyz 0 2
|  4> N -0.01498947828047 -0.01894387811818 0.00000000000000
|  5> H  1.03197835263254  0.00908678452370 0.00000000000000
|  6> H -0.22855980523269  1.00639225931822 0.00000000000000
|  7> *
|  8>
|  9> %eprnmr
| 10>     Nuclei = all N { aiso, adip, aorb, fgrad, rho }
| 11>     Nuclei = all H { aiso, adip, aorb, fgrad, rho }
| 12> end
| 13>
| 14>                          ****END OF INPUT****

CARTESIAN COORDINATES (ANGSTROEM)
---------------------------------
  N     -0.014989   -0.018944    0.000000
  H      1.031978    0.009087    0.000000
  H     -0.228560    1.006392    0.000000

 Total Charge           Charge          ....    0
 Multiplicity           Mult            ....    2
 Number of Electrons    NEL             ....    9
 Basis Dimension        Dim             ....   62

ORBITAL ENERGIES
----------------
                 SPIN UP ORBITALS
  NO   OCC          E(Eh)            E(eV)
   0   1.0000     -14.355657      -390.6373
   1   1.0000      -0.854140       -23.2423
   2   1.0000      -0.466599       -12.6968
   3   1.0000      -0.339053        -9.2261
   4   1.0000      -0.322366        -8.7720
   5   0.0000      -0.008161        -0.2221
   6   0.0000       0.045557         1.2397
   7   0.0000       0.066766         1.8168
   8   0.0000       0.070607         1.9213
   9   0.0000       0.097327         2.6484

                 SPIN DOWN ORBITALS
  NO   OCC          E(Eh)            E(eV)
   0   1.0000     -14.335736      -390.0952
   1   1.0000      -0.800684       -21.7877
   2   1.0000      -0.452695       -12.3184
   3   1.0000      -0.314949        -8.5702
   4   0.0000      -0.122316        -3.3284
   5   0.0000      -0.004342        -0.1181
   6   0.0000       0.047096         1.2816
   7   0.0000       0.071566         1.9474
   8   0.0000       0.081060         2.2058

MULLIKEN ATOMIC CHARGES AND SPIN POPULATIONS
--------------------------------------------
   0 N :   -0.446464    1.051333
   1 H :    0.223206   -0.025669
   2 H :    0.223259   -0.025664
Sum of atomic charges         :   -0.0000000

LOEWDIN ATOMIC CHARGES AND SPIN POPULATIONS
-------------------------------------------
   0 N :   -0.098679    0.946114
   1 H :    0.049338    0.026941
   2 H :    0.049341    0.026945

  Mayer bond orders larger than 0.100000
B(  0-N ,  1-H ) :   0.9425 B(  0-N ,  2-H ) :   0.9425

FINAL SINGLE POINT ENERGY       -55.875432645868

DIPOLE MOMENT
-------------

Method             : SCF
Type of density    : Electron Density
Multiplicity       :   2
Irrep              :   0
Energy             :   -55.8754326458678889 Eh
Relativity type    :
Basis              : AO
                                X                 Y                 Z
Electronic contribution:     -0.217634653      -0.275039975      -0.000000007
Nuclear contribution   :      0.683210481       0.863538990       0.000000000
                        -----------------------------------------
Total Dipole Moment    :      0.465575828       0.588499015      -0.000000007
                        -----------------------------------------
Magnitude (a.u.)       :      0.750394524
Magnitude (Debye)      :      1.907351300

Rotational constants in cm-1:            21.207844            12.946291             8.038936
Rotational constants in MHz :        635795.159963        388120.025859        241001.244383

                             ****ORCA TERMINATED NORMALLY****
TOTAL RUN TIME: 0 days 0 hours 0 minutes 3 seconds 550 msec
